# vtk DataFile Version 3.0
Bar Element
ASCII

DATASET UNSTRUCTURED_GRID

POINTS 6 float
0.0 3.0 0.0
4.0 0.0 0.0
4.0 3.0 0.0
8.0 3.0 0.0
8.0 0.0 0.0
12.0 0.0 0.0

CELLS 10 30
2 0 1
2 0 2
2 2 3
2 2 4
2 2 1
2 1 3
2 1 4
2 4 3
2 3 5
2 4 5

CELL_TYPES 10
3
3
3
3
3
3
3
3
3
3

POINT_DATA 6
VECTORS Displacement float
  0.0000e+00   0.0000e+00 0.0
 -1.0417e-03   0.0000e+00 0.0
  5.3333e-04  -6.5625e-05 0.0
  9.5000e-04  -3.0462e-03 0.0
 -1.4250e-03  -2.9806e-03 0.0
 -1.6917e-03  -7.2628e-03 0.0
